#!/usr/bin/env bash
# Forces nginx to listed to port 80.
sed -i 's/8080/80/g' /etc/nginx/sites-enabled/default
sudo service nginx restart
kill "$(pgrep 'nginx' | head -1)"
